
     Program PWSCF v.6.4.1 starts on 23Feb2023 at 15:13:16 

     This program is part of the open-source Quantum ESPRESSO suite
     for quantum simulation of materials; please cite
         "P. Giannozzi et al., J. Phys.:Condens. Matter 21 395502 (2009);
         "P. Giannozzi et al., J. Phys.:Condens. Matter 29 465901 (2017);
          URL http://www.quantum-espresso.org", 
     in publications or presentations arising from this work. More details at
     http://www.quantum-espresso.org/quote

     Parallel version (MPI), running on     1 processors

     MPI processes distributed on     1 nodes
     Reading input from double1_468-vc.in

     Current dimensions of program PWSCF are:
     Max number of different atomic species (ntypx) = 10
     Max number of k-points (npk) =  40000
     Max angular momentum in pseudopotentials (lmaxx) =  3
     Message from routine iosys:
     BEWARE:  force calculation with tetrahedra (not recommanded)
     Message from routine iosys:
     BEWARE: stress calculation with tetrahedra (not recommanded)
               file C.pbe-n-kjpaw_psl.1.0.0.UPF: wavefunction(s)  2S 2P renormalized

     Subspace diagonalization in iterative solution of the eigenvalue problem:
     a serial algorithm will be used


     G-vector sticks info
     --------------------
     sticks:   dense  smooth     PW     G-vecs:    dense   smooth      PW
     Sum        5015    5015   1349               568961   568961   79337



     bravais-lattice index     =            8
     lattice parameter (alat)  =      22.3326  a.u.
     unit-cell volume          =   11909.1904 (a.u.)^3
     number of atoms/cell      =           24
     number of atomic types    =            1
     number of electrons       =        96.00
     number of Kohn-Sham states=           96
     kinetic-energy cutoff     =      50.0000  Ry
     charge density cutoff     =     200.0000  Ry
     convergence threshold     =      1.0E-08
     mixing beta               =       0.7000
     number of iterations used =            8  plain     mixing
     Exchange-correlation      = SLA PW PBX PBC ( 1  4  3  4 0 0)
     nstep                     =           50


     celldm(1)=  22.332594  celldm(2)=   0.631793  celldm(3)=   1.692348
     celldm(4)=   0.000000  celldm(5)=   0.000000  celldm(6)=   0.000000

     crystal axes: (cart. coord. in units of alat)
               a(1) = (   1.000000   0.000000   0.000000 )  
               a(2) = (   0.000000   0.631793   0.000000 )  
               a(3) = (   0.000000   0.000000   1.692348 )  

     reciprocal axes: (cart. coord. in units 2 pi/alat)
               b(1) = (  1.000000  0.000000  0.000000 )  
               b(2) = (  0.000000  1.582796  0.000000 )  
               b(3) = (  0.000000  0.000000  0.590895 )  


     PseudoPot. # 1 for C  read from file:
     ./C.pbe-n-kjpaw_psl.1.0.0.UPF
     MD5 check sum: 5d2aebdfa2cae82b50a7e79e9516da0f
     Pseudo is Projector augmented-wave + core cor, Zval =  4.0
     Generated using "atomic" code by A. Dal Corso v.5.1
     Shape of augmentation charge: PSQ
     Using radial grid of 1073 points,  4 beta functions with: 
                l(1) =   0
                l(2) =   0
                l(3) =   1
                l(4) =   1
     Q(r) pseudized with 0 coefficients 


     atomic species   valence    mass     pseudopotential
        C              4.00    12.01100     C ( 1.00)

      2 Sym. Ops. (no inversion) found


                                    s                        frac. trans.

      isym =  1     identity                                     

 cryst.   s( 1) = (     1          0          0      )
                  (     0          1          0      )
                  (     0          0          1      )

 cart.    s( 1) = (  1.0000000  0.0000000  0.0000000 )
                  (  0.0000000  1.0000000  0.0000000 )
                  (  0.0000000  0.0000000  1.0000000 )


      isym =  2     inv. 180 deg rotation - cart. axis [0,0,1]   

 cryst.   s( 2) = (     1          0          0      )
                  (     0          1          0      )
                  (     0          0         -1      )

 cart.    s( 2) = (  1.0000000  0.0000000  0.0000000 )
                  (  0.0000000  1.0000000  0.0000000 )
                  (  0.0000000  0.0000000 -1.0000000 )


     point group C_s (m)    
     there are  2 classes
     the character table:

       E     s    
A'     1.00  1.00
A''    1.00 -1.00

     the symmetry operations in each class and the name of the first element:

     E        1
          identity                                               
     s        2
          inv. 180 deg rotation - cart. axis [0,0,1]             

   Cartesian axes

     site n.     atom                  positions (alat units)
         1           C   tau(   1) = (   0.3451544   0.5697290   0.8461740  )
         2           C   tau(   2) = (   0.0621092   0.3784090   0.8461740  )
         3           C   tau(   3) = (   0.0621092   0.2531753   0.8461740  )
         4           C   tau(   4) = (   0.3453236   0.0620246   0.8461740  )
         5           C   tau(   5) = (   0.4363719   0.1473189   0.8461740  )
         6           C   tau(   6) = (   0.4362027   0.4845192   0.8461740  )
         7           C   tau(   7) = (   0.6546848   0.5696444   0.8461740  )
         8           C   tau(   8) = (   0.5635519   0.4844346   0.8461740  )
         9           C   tau(   9) = (   0.5636365   0.1474035   0.8461740  )
        10           C   tau(  10) = (   0.6546848   0.0621092   0.8461740  )
        11           C   tau(  11) = (   0.9378147   0.2531753   0.8461740  )
        12           C   tau(  12) = (   0.9378993   0.3784090   0.8461740  )
        13           C   tau(  13) = (   0.2349825   0.5164200   0.8461740  )
        14           C   tau(  14) = (   0.1506190   0.4587956   0.8461740  )
        15           C   tau(  15) = (   0.1507036   0.1727887   0.8461740  )
        16           C   tau(  16) = (   0.2351518   0.1153335   0.8461740  )
        17           C   tau(  17) = (   0.3966864   0.2646832   0.8461740  )
        18           C   tau(  18) = (   0.3966864   0.3671549   0.8461740  )
        19           C   tau(  19) = (   0.7648567   0.5162508   0.8461740  )
        20           C   tau(  20) = (   0.8493049   0.4587109   0.8461740  )
        21           C   tau(  21) = (   0.6032375   0.3671549   0.8461740  )
        22           C   tau(  22) = (   0.6032375   0.2646832   0.8461740  )
        23           C   tau(  23) = (   0.7649413   0.1153335   0.8461740  )
        24           C   tau(  24) = (   0.8493049   0.1727887   0.8461740  )

   Crystallographic axes

     site n.     atom                  positions (cryst. coord.)
         1           C   tau(   1) = (  0.3451544  0.9017648  0.5000000  )
         2           C   tau(   2) = (  0.0621092  0.5989443  0.5000000  )
         3           C   tau(   3) = (  0.0621092  0.4007248  0.5000000  )
         4           C   tau(   4) = (  0.3453236  0.0981722  0.5000000  )
         5           C   tau(   5) = (  0.4363719  0.2331758  0.5000000  )
         6           C   tau(   6) = (  0.4362027  0.7668952  0.5000000  )
         7           C   tau(   7) = (  0.6546848  0.9016309  0.5000000  )
         8           C   tau(   8) = (  0.5635519  0.7667613  0.5000000  )
         9           C   tau(   9) = (  0.5636365  0.2333097  0.5000000  )
        10           C   tau(  10) = (  0.6546848  0.0983062  0.5000000  )
        11           C   tau(  11) = (  0.9378147  0.4007248  0.5000000  )
        12           C   tau(  12) = (  0.9378993  0.5989443  0.5000000  )
        13           C   tau(  13) = (  0.2349825  0.8173876  0.5000000  )
        14           C   tau(  14) = (  0.1506190  0.7261798  0.5000000  )
        15           C   tau(  15) = (  0.1507036  0.2734893  0.5000000  )
        16           C   tau(  16) = (  0.2351518  0.1825495  0.5000000  )
        17           C   tau(  17) = (  0.3966864  0.4189396  0.5000000  )
        18           C   tau(  18) = (  0.3966864  0.5811314  0.5000000  )
        19           C   tau(  19) = (  0.7648567  0.8171197  0.5000000  )
        20           C   tau(  20) = (  0.8493049  0.7260459  0.5000000  )
        21           C   tau(  21) = (  0.6032375  0.5811314  0.5000000  )
        22           C   tau(  22) = (  0.6032375  0.4189396  0.5000000  )
        23           C   tau(  23) = (  0.7649413  0.1825495  0.5000000  )
        24           C   tau(  24) = (  0.8493049  0.2734893  0.5000000  )

     number of k points=    20 (tetrahedron method)
                       cart. coord. in units 2pi/alat
        k(    1) = (   0.0000000   0.0000000   0.0000000), wk =   0.0555556
        k(    2) = (   0.0000000   0.2637994   0.0000000), wk =   0.1111111
        k(    3) = (   0.0000000   0.5275987   0.0000000), wk =   0.1111111
        k(    4) = (   0.0000000  -0.7913981   0.0000000), wk =   0.0555556
        k(    5) = (   0.1666667   0.0000000   0.0000000), wk =   0.1111111
        k(    6) = (   0.1666667   0.2637994   0.0000000), wk =   0.1111111
        k(    7) = (   0.1666667   0.5275987   0.0000000), wk =   0.1111111
        k(    8) = (   0.1666667  -0.7913981   0.0000000), wk =   0.1111111
        k(    9) = (   0.3333333   0.0000000   0.0000000), wk =   0.1111111
        k(   10) = (   0.3333333   0.2637994   0.0000000), wk =   0.1111111
        k(   11) = (   0.3333333   0.5275987   0.0000000), wk =   0.1111111
        k(   12) = (   0.3333333  -0.7913981   0.0000000), wk =   0.1111111
        k(   13) = (  -0.5000000   0.0000000   0.0000000), wk =   0.0555556
        k(   14) = (  -0.5000000   0.2637994   0.0000000), wk =   0.1111111
        k(   15) = (  -0.5000000   0.5275987   0.0000000), wk =   0.1111111
        k(   16) = (  -0.5000000  -0.7913981   0.0000000), wk =   0.0555556
        k(   17) = (  -0.1666667   0.2637994   0.0000000), wk =   0.1111111
        k(   18) = (  -0.1666667   0.5275987   0.0000000), wk =   0.1111111
        k(   19) = (  -0.3333333   0.2637994   0.0000000), wk =   0.1111111
        k(   20) = (  -0.3333333   0.5275987   0.0000000), wk =   0.1111111

                       cryst. coord.
        k(    1) = (   0.0000000   0.0000000   0.0000000), wk =   0.0555556
        k(    2) = (   0.0000000   0.1666667   0.0000000), wk =   0.1111111
        k(    3) = (   0.0000000   0.3333333   0.0000000), wk =   0.1111111
        k(    4) = (   0.0000000  -0.5000000   0.0000000), wk =   0.0555556
        k(    5) = (   0.1666667   0.0000000   0.0000000), wk =   0.1111111
        k(    6) = (   0.1666667   0.1666667   0.0000000), wk =   0.1111111
        k(    7) = (   0.1666667   0.3333333   0.0000000), wk =   0.1111111
        k(    8) = (   0.1666667  -0.5000000   0.0000000), wk =   0.1111111
        k(    9) = (   0.3333333   0.0000000   0.0000000), wk =   0.1111111
        k(   10) = (   0.3333333   0.1666667   0.0000000), wk =   0.1111111
        k(   11) = (   0.3333333   0.3333333   0.0000000), wk =   0.1111111
        k(   12) = (   0.3333333  -0.5000000   0.0000000), wk =   0.1111111
        k(   13) = (  -0.5000000   0.0000000   0.0000000), wk =   0.0555556
        k(   14) = (  -0.5000000   0.1666667   0.0000000), wk =   0.1111111
        k(   15) = (  -0.5000000   0.3333333   0.0000000), wk =   0.1111111
        k(   16) = (  -0.5000000  -0.5000000   0.0000000), wk =   0.0555556
        k(   17) = (  -0.1666667   0.1666667   0.0000000), wk =   0.1111111
        k(   18) = (  -0.1666667   0.3333333   0.0000000), wk =   0.1111111
        k(   19) = (  -0.3333333   0.1666667   0.0000000), wk =   0.1111111
        k(   20) = (  -0.3333333   0.3333333   0.0000000), wk =   0.1111111

     Dense  grid:   568961 G-vectors     FFT dimensions: ( 108,  64, 180)
